/*--------------------------------*- C++ -*----------------------------------*\
| =========                 |                                                 |
| \\      /  F ield         | OpenFOAM: The Open Source CFD Toolbox           |
|  \\    /   O peration     | Version:  5.x                                   |
|   \\  /    A nd           | Web:      www.OpenFOAM.org                      |
|    \\/     M anipulation  |                                                 |
\*---------------------------------------------------------------------------*/
FoamFile
{
    version     2.0;
    format      ascii;
    class       pointVectorField;
    location    "0";
    object      pointMotionU;
}
// * * * * * * * * * * * * * * * * * * * * * * * * * * * * * * * * * * * * * //

dimensions      [0 1 -1 0 0 0 0];

internalField   uniform (0 0 0);

boundaryField
{
    back
    {
        type            wedge;
    }
    front
    {
        type            wedge;
    }
    cavityRight
    {
        type            fixedValue;
        value           uniform (0 0 0);
    }
    DIAPHRAGM
    {
        type            myOscillatingVelocity;
        amplitude       0.0001156;
        omega           1570.8;
        rc              0.0225;
        p0              nonuniform List<vector> 
339
(
(9.22807e-05 0 3.22251e-06)
(0 0 0)
(9.22807e-05 0 -3.22251e-06)
(0.000181011 0 6.32104e-06)
(0.000181011 0 -6.32104e-06)
(0.000266327 0 9.30036e-06)
(0.000266327 0 -9.30036e-06)
(0.000348361 0 1.2165e-05)
(0.000348361 0 -1.2165e-05)
(0.000427239 0 1.49195e-05)
(0.000427239 0 -1.49195e-05)
(0.000503082 0 1.7568e-05)
(0.000503082 0 -1.7568e-05)
(0.000576007 0 2.01146e-05)
(0.000576007 0 -2.01146e-05)
(0.000646127 0 2.25632e-05)
(0.000646127 0 -2.25632e-05)
(0.000713548 0 2.49177e-05)
(0.000713548 0 -2.49177e-05)
(0.000778376 0 2.71815e-05)
(0.000778376 0 -2.71815e-05)
(0.000840709 0 2.93582e-05)
(0.000840709 0 -2.93582e-05)
(0.000900644 0 3.14512e-05)
(0.000900644 0 -3.14512e-05)
(0.000958274 0 3.34637e-05)
(0.000958274 0 -3.34637e-05)
(0.00101369 0 3.53987e-05)
(0.00101369 0 -3.53987e-05)
(0.00106697 0 3.72593e-05)
(0.00106697 0 -3.72593e-05)
(0.0011182 0 3.90483e-05)
(0.0011182 0 -3.90483e-05)
(0.00116746 0 4.07684e-05)
(0.00116746 0 -4.07684e-05)
(0.00121482 0 4.24224e-05)
(0.00121482 0 -4.24224e-05)
(0.00126036 0 4.40128e-05)
(0.00126036 0 -4.40128e-05)
(0.00130415 0 4.55419e-05)
(0.00130415 0 -4.55419e-05)
(0.00134626 0 4.70123e-05)
(0.00134626 0 -4.70123e-05)
(0.00138674 0 4.8426e-05)
(0.00138674 0 -4.8426e-05)
(0.00142567 0 4.97854e-05)
(0.00142567 0 -4.97854e-05)
(0.0014631 0 5.10925e-05)
(0.0014631 0 -5.10925e-05)
(0.00149909 0 5.23492e-05)
(0.00149909 0 -5.23492e-05)
(0.00155764 0 5.43941e-05)
(0.00155764 0 -5.43941e-05)
(0.00161686 0 5.64621e-05)
(0.00161686 0 -5.64621e-05)
(0.00167675 0 5.85535e-05)
(0.00167675 0 -5.85535e-05)
(0.00173732 0 6.06686e-05)
(0.00173732 0 -6.06686e-05)
(0.00179857 0 6.28076e-05)
(0.00179857 0 -6.28076e-05)
(0.00186052 0 6.49708e-05)
(0.00186052 0 -6.49708e-05)
(0.00192317 0 6.71585e-05)
(0.00192317 0 -6.71585e-05)
(0.00198652 0 6.9371e-05)
(0.00198652 0 -6.9371e-05)
(0.0020506 0 7.16085e-05)
(0.0020506 0 -7.16085e-05)
(0.0021154 0 7.38713e-05)
(0.0021154 0 -7.38713e-05)
(0.00218093 0 7.61598e-05)
(0.00218093 0 -7.61598e-05)
(0.0022472 0 7.84741e-05)
(0.0022472 0 -7.84741e-05)
(0.00231423 0 8.08146e-05)
(0.00231423 0 -8.08146e-05)
(0.00238201 0 8.31817e-05)
(0.00238201 0 -8.31817e-05)
(0.00245056 0 8.55755e-05)
(0.00245056 0 -8.55755e-05)
(0.00251989 0 8.79964e-05)
(0.00251989 0 -8.79964e-05)
(0.00259 0 9.04447e-05)
(0.00259 0 -9.04447e-05)
(0.0026609 0 9.29208e-05)
(0.0026609 0 -9.29208e-05)
(0.00273261 0 9.54248e-05)
(0.00273261 0 -9.54248e-05)
(0.00280513 0 9.79572e-05)
(0.00280513 0 -9.79572e-05)
(0.00287847 0 0.000100518)
(0.00287847 0 -0.000100518)
(0.00295264 0 0.000103108)
(0.00295264 0 -0.000103108)
(0.00302764 0 0.000105728)
(0.00302764 0 -0.000105728)
(0.0031035 0 0.000108377)
(0.0031035 0 -0.000108377)
(0.00318022 0 0.000111056)
(0.00318022 0 -0.000111056)
(0.0032578 0 0.000113765)
(0.0032578 0 -0.000113765)
(0.00333627 0 0.000116505)
(0.00333627 0 -0.000116505)
(0.00341562 0 0.000119276)
(0.00341562 0 -0.000119276)
(0.00349587 0 0.000122078)
(0.00349587 0 -0.000122078)
(0.00357702 0 0.000124912)
(0.00357702 0 -0.000124912)
(0.0036591 0 0.000127779)
(0.0036591 0 -0.000127779)
(0.0037421 0 0.000130677)
(0.0037421 0 -0.000130677)
(0.00382605 0 0.000133609)
(0.00382605 0 -0.000133609)
(0.00391094 0 0.000136573)
(0.00391094 0 -0.000136573)
(0.0039968 0 0.000139571)
(0.0039968 0 -0.000139571)
(0.00408362 0 0.000142603)
(0.00408362 0 -0.000142603)
(0.00417143 0 0.00014567)
(0.00417143 0 -0.00014567)
(0.00426024 0 0.000148771)
(0.00426024 0 -0.000148771)
(0.00435005 0 0.000151907)
(0.00435005 0 -0.000151907)
(0.00444087 0 0.000155079)
(0.00444087 0 -0.000155079)
(0.00453272 0 0.000158286)
(0.00453272 0 -0.000158286)
(0.00462562 0 0.00016153)
(0.00462562 0 -0.00016153)
(0.00471956 0 0.000164811)
(0.00471956 0 -0.000164811)
(0.00481457 0 0.000168128)
(0.00481457 0 -0.000168128)
(0.00491065 0 0.000171484)
(0.00491065 0 -0.000171484)
(0.00500782 0 0.000174877)
(0.00500782 0 -0.000174877)
(0.00510609 0 0.000178309)
(0.00510609 0 -0.000178309)
(0.00520547 0 0.000181779)
(0.00520547 0 -0.000181779)
(0.00530598 0 0.000185289)
(0.00530598 0 -0.000185289)
(0.00540763 0 0.000188838)
(0.00540763 0 -0.000188838)
(0.00551042 0 0.000192428)
(0.00551042 0 -0.000192428)
(0.00561438 0 0.000196058)
(0.00561438 0 -0.000196058)
(0.00571951 0 0.00019973)
(0.00571951 0 -0.00019973)
(0.00582584 0 0.000203443)
(0.00582584 0 -0.000203443)
(0.00593337 0 0.000207198)
(0.00593337 0 -0.000207198)
(0.00604211 0 0.000210995)
(0.00604211 0 -0.000210995)
(0.00615209 0 0.000214836)
(0.00615209 0 -0.000214836)
(0.00626331 0 0.00021872)
(0.00626331 0 -0.00021872)
(0.00637579 0 0.000222648)
(0.00637579 0 -0.000222648)
(0.00648955 0 0.00022662)
(0.00648955 0 -0.00022662)
(0.00660459 0 0.000230637)
(0.00660459 0 -0.000230637)
(0.00672093 0 0.0002347)
(0.00672093 0 -0.0002347)
(0.00683859 0 0.000238809)
(0.00683859 0 -0.000238809)
(0.00695758 0 0.000242964)
(0.00695758 0 -0.000242964)
(0.00707792 0 0.000247166)
(0.00707792 0 -0.000247166)
(0.00719962 0 0.000251416)
(0.00719962 0 -0.000251416)
(0.0073227 0 0.000255714)
(0.0073227 0 -0.000255714)
(0.00744717 0 0.000260061)
(0.00744717 0 -0.000260061)
(0.00757305 0 0.000264457)
(0.00757305 0 -0.000264457)
(0.00770035 0 0.000268902)
(0.00770035 0 -0.000268902)
(0.0078291 0 0.000273398)
(0.0078291 0 -0.000273398)
(0.0079593 0 0.000277945)
(0.0079593 0 -0.000277945)
(0.00809098 0 0.000282543)
(0.00809098 0 -0.000282543)
(0.00822414 0 0.000287193)
(0.00822414 0 -0.000287193)
(0.00835882 0 0.000291896)
(0.00835882 0 -0.000291896)
(0.00849501 0 0.000296652)
(0.00849501 0 -0.000296652)
(0.00863275 0 0.000301462)
(0.00863275 0 -0.000301462)
(0.00877205 0 0.000306327)
(0.00877205 0 -0.000306327)
(0.00891293 0 0.000311246)
(0.00891293 0 -0.000311246)
(0.0090554 0 0.000316221)
(0.0090554 0 -0.000316221)
(0.00919948 0 0.000321253)
(0.00919948 0 -0.000321253)
(0.00934519 0 0.000326341)
(0.00934519 0 -0.000326341)
(0.00949255 0 0.000331487)
(0.00949255 0 -0.000331487)
(0.00964158 0 0.000336691)
(0.00964158 0 -0.000336691)
(0.0097923 0 0.000341955)
(0.0097923 0 -0.000341955)
(0.00994472 0 0.000347277)
(0.00994472 0 -0.000347277)
(0.0100989 0 0.00035266)
(0.0100989 0 -0.00035266)
(0.0102548 0 0.000358104)
(0.0102548 0 -0.000358104)
(0.0104124 0 0.00036361)
(0.0104124 0 -0.00036361)
(0.0105719 0 0.000369178)
(0.0105719 0 -0.000369178)
(0.0107331 0 0.000374808)
(0.0107331 0 -0.000374808)
(0.0108962 0 0.000380503)
(0.0108962 0 -0.000380503)
(0.0110611 0 0.000386262)
(0.0110611 0 -0.000386262)
(0.0112279 0 0.000392086)
(0.0112279 0 -0.000392086)
(0.0113965 0 0.000397976)
(0.0113965 0 -0.000397976)
(0.0115671 0 0.000403933)
(0.0115671 0 -0.000403933)
(0.0117396 0 0.000409957)
(0.0117396 0 -0.000409957)
(0.0119141 0 0.00041605)
(0.0119141 0 -0.00041605)
(0.0120905 0 0.000422211)
(0.0120905 0 -0.000422211)
(0.012269 0 0.000428442)
(0.012269 0 -0.000428442)
(0.0124494 0 0.000434744)
(0.0124494 0 -0.000434744)
(0.0126319 0 0.000441117)
(0.0126319 0 -0.000441117)
(0.0128165 0 0.000447562)
(0.0128165 0 -0.000447562)
(0.0130031 0 0.00045408)
(0.0130031 0 -0.00045408)
(0.0131919 0 0.000460672)
(0.0131919 0 -0.000460672)
(0.0133828 0 0.000467338)
(0.0133828 0 -0.000467338)
(0.0135759 0 0.00047408)
(0.0135759 0 -0.00047408)
(0.0137711 0 0.000480898)
(0.0137711 0 -0.000480898)
(0.0139686 0 0.000487793)
(0.0139686 0 -0.000487793)
(0.0141683 0 0.000494767)
(0.0141683 0 -0.000494767)
(0.0143702 0 0.000501819)
(0.0143702 0 -0.000501819)
(0.0145745 0 0.000508951)
(0.0145745 0 -0.000508951)
(0.014781 0 0.000516164)
(0.014781 0 -0.000516164)
(0.0149899 0 0.000523458)
(0.0149899 0 -0.000523458)
(0.0152011 0 0.000530835)
(0.0152011 0 -0.000530835)
(0.0154148 0 0.000538296)
(0.0154148 0 -0.000538296)
(0.0156308 0 0.000545841)
(0.0156308 0 -0.000545841)
(0.0158493 0 0.000553471)
(0.0158493 0 -0.000553471)
(0.0160703 0 0.000561188)
(0.0160703 0 -0.000561188)
(0.0162938 0 0.000568992)
(0.0162938 0 -0.000568992)
(0.0165198 0 0.000576885)
(0.0165198 0 -0.000576885)
(0.0167484 0 0.000584866)
(0.0167484 0 -0.000584866)
(0.0169795 0 0.000592938)
(0.0169795 0 -0.000592938)
(0.0172133 0 0.000601102)
(0.0172133 0 -0.000601102)
(0.0174497 0 0.000609358)
(0.0174497 0 -0.000609358)
(0.0176888 0 0.000617707)
(0.0176888 0 -0.000617707)
(0.0179306 0 0.000626151)
(0.0179306 0 -0.000626151)
(0.0181751 0 0.00063469)
(0.0181751 0 -0.00063469)
(0.0184224 0 0.000643326)
(0.0184224 0 -0.000643326)
(0.0186726 0 0.00065206)
(0.0186726 0 -0.00065206)
(0.0189255 0 0.000660892)
(0.0189255 0 -0.000660892)
(0.0191813 0 0.000669825)
(0.0191813 0 -0.000669825)
(0.01944 0 0.000678859)
(0.01944 0 -0.000678859)
(0.0197016 0 0.000687995)
(0.0197016 0 -0.000687995)
(0.0199662 0 0.000697234)
(0.0199662 0 -0.000697234)
(0.0202337 0 0.000706578)
(0.0202337 0 -0.000706578)
(0.0205043 0 0.000716028)
(0.0205043 0 -0.000716028)
(0.020778 0 0.000725584)
(0.020778 0 -0.000725584)
(0.0210548 0 0.000735249)
(0.0210548 0 -0.000735249)
(0.0213347 0 0.000745023)
(0.0213347 0 -0.000745023)
(0.0216177 0 0.000754908)
(0.0216177 0 -0.000754908)
(0.021904 0 0.000764905)
(0.021904 0 -0.000764905)
(0.0221935 0 0.000775014)
(0.0221935 0 -0.000775014)
(0.0224863 0 0.000785239)
(0.0224863 0 -0.000785239)
)
;
        value           uniform (0 0 0);
    }
    cavityTop
    {
        type            fixedValue;
        value           uniform (0 0 0);
    }
    orificeRight
    {
        type            fixedValue;
        value           uniform (0 0 0);
    }
    domainBottom
    {
        type            fixedValue;
        value           uniform (0 0 0);
    }
    domainRight
    {
        type            fixedValue;
        value           uniform (0 0 0);
    }
    domainTop
    {
        type            fixedValue;
        value           uniform (0 0 0);
    }
    defaultFaces
    {
        type            empty;
    }
}


// ************************************************************************* //
